   2   2   0   0
  0.2809292E+02  0.4299131E-09  0.4299131E-09  0.4299131E-09  0.5000000E-15
  1.000000000000000E-004
  CAR 
 Si                                      
     16.26957252     -7.64527304  301      5.27123469      1.00000000
     -7.645  0.0000E+00  0.0000E+00
     -7.566  0.0000E+00  0.0000E+00
     -7.486  0.0000E+00  0.0000E+00
     -7.406  0.0000E+00  0.0000E+00
     -7.326  0.0000E+00  0.0000E+00
     -7.247  0.0000E+00  0.0000E+00
     -7.167  0.0000E+00  0.0000E+00
     -7.087  0.0000E+00  0.0000E+00
     -7.008  0.0000E+00  0.0000E+00
     -6.928  0.0000E+00  0.0000E+00
     -6.848  0.0000E+00  0.0000E+00
     -6.768  0.0000E+00  0.0000E+00
     -6.689  0.0000E+00  0.0000E+00
     -6.609  0.0000E+00  0.0000E+00
     -6.529  0.3665E-03  0.3541E-05
     -6.450  0.5153E-02  0.1867E-03
     -6.370  0.1548E-01  0.9724E-03
     -6.290  0.1537E-01  0.2233E-02
     -6.210  0.1819E-01  0.3569E-02
     -6.131  0.2122E-01  0.5139E-02
     -6.051  0.2445E-01  0.6958E-02
     -5.971  0.2751E-01  0.9035E-02
     -5.892  0.2937E-01  0.1131E-01
     -5.812  0.3020E-01  0.1369E-01
     -5.732  0.3204E-01  0.1616E-01
     -5.652  0.3410E-01  0.1880E-01
     -5.573  0.3620E-01  0.2160E-01
     -5.493  0.3836E-01  0.2457E-01
     -5.413  0.4058E-01  0.2772E-01
     -5.334  0.4287E-01  0.3104E-01
     -5.254  0.4424E-01  0.3451E-01
     -5.174  0.4609E-01  0.3811E-01
     -5.094  0.4800E-01  0.4186E-01
     -5.015  0.4998E-01  0.4576E-01
     -4.935  0.5220E-01  0.4983E-01
     -4.855  0.5472E-01  0.5409E-01
     -4.775  0.5751E-01  0.5857E-01
     -4.696  0.6055E-01  0.6327E-01
     -4.616  0.6380E-01  0.6823E-01
     -4.536  0.6726E-01  0.7345E-01
     -4.457  0.7117E-01  0.7896E-01
     -4.377  0.7910E-01  0.8487E-01
     -4.297  0.9893E-01  0.9190E-01
     -4.217  0.1006E+00  0.1003E+00
     -4.138  0.8582E-01  0.1074E+00
     -4.058  0.8481E-01  0.1142E+00
     -3.978  0.8395E-01  0.1209E+00
     -3.899  0.8315E-01  0.1276E+00
     -3.819  0.8017E-01  0.1341E+00
     -3.739  0.7275E-01  0.1402E+00
     -3.659  0.7190E-01  0.1459E+00
     -3.580  0.7173E-01  0.1517E+00
     -3.500  0.6985E-01  0.1573E+00
     -3.420  0.6714E-01  0.1628E+00
     -3.341  0.6427E-01  0.1680E+00
     -3.261  0.6323E-01  0.1731E+00
     -3.181  0.6100E-01  0.1781E+00
     -3.101  0.5461E-01  0.1827E+00
     -3.022  0.4728E-01  0.1868E+00
     -2.942  0.3995E-01  0.1902E+00
     -2.862  0.3271E-01  0.1931E+00
     -2.783  0.2587E-01  0.1955E+00
     -2.703  0.1948E-01  0.1973E+00
     -2.623  0.1353E-01  0.1986E+00
     -2.543  0.8027E-02  0.1994E+00
     -2.464  0.3225E-02  0.1999E+00
     -2.384  0.2146E-02  0.2001E+00
     -2.304  0.5868E-02  0.2003E+00
     -2.225  0.1088E-01  0.2010E+00
     -2.145  0.1635E-01  0.2021E+00
     -2.065  0.2230E-01  0.2036E+00
     -1.985  0.2871E-01  0.2057E+00
     -1.906  0.3558E-01  0.2082E+00
     -1.826  0.4307E-01  0.2114E+00
     -1.746  0.5128E-01  0.2151E+00
     -1.667  0.6022E-01  0.2195E+00
     -1.587  0.7505E-01  0.2248E+00
     -1.507  0.9547E-01  0.2316E+00
     -1.427  0.1284E+00  0.2402E+00
     -1.348  0.1728E+00  0.2533E+00
     -1.268  0.1276E+00  0.2653E+00
     -1.188  0.1027E+00  0.2744E+00
     -1.109  0.8692E-01  0.2819E+00
     -1.029  0.7948E-01  0.2885E+00
     -0.949  0.7421E-01  0.2946E+00
     -0.869  0.6926E-01  0.3003E+00
     -0.790  0.6463E-01  0.3057E+00
     -0.710  0.6031E-01  0.3106E+00
     -0.630  0.5610E-01  0.3153E+00
     -0.551  0.5092E-01  0.3196E+00
     -0.471  0.4694E-01  0.3234E+00
     -0.391  0.4395E-01  0.3271E+00
     -0.311  0.4153E-01  0.3305E+00
     -0.232  0.3967E-01  0.3337E+00
     -0.152  0.3833E-01  0.3368E+00
     -0.072  0.3712E-01  0.3398E+00
      0.007  0.3595E-01  0.3427E+00
      0.087  0.3481E-01  0.3455E+00
      0.167  0.3360E-01  0.3483E+00
      0.247  0.3234E-01  0.3509E+00
      0.326  0.3102E-01  0.3534E+00
      0.406  0.2964E-01  0.3558E+00
      0.486  0.2831E-01  0.3581E+00
      0.565  0.2705E-01  0.3604E+00
      0.645  0.2586E-01  0.3625E+00
      0.725  0.2382E-01  0.3645E+00
      0.805  0.2180E-01  0.3663E+00
      0.884  0.2033E-01  0.3679E+00
      0.964  0.1942E-01  0.3695E+00
      1.044  0.1892E-01  0.3711E+00
      1.124  0.3913E-01  0.3730E+00
      1.203  0.9011E-01  0.3781E+00
      1.283  0.1451E+00  0.3875E+00
      1.363  0.1288E+00  0.3985E+00
      1.442  0.1163E+00  0.4082E+00
      1.522  0.1127E+00  0.4173E+00
      1.602  0.1123E+00  0.4263E+00
      1.682  0.1130E+00  0.4352E+00
      1.761  0.1146E+00  0.4443E+00
      1.841  0.1151E+00  0.4535E+00
      1.921  0.1585E+00  0.4636E+00
      2.000  0.1103E+00  0.4730E+00
      2.080  0.1114E+00  0.4819E+00
      2.160  0.1145E+00  0.4909E+00
      2.240  0.1196E+00  0.5002E+00
      2.319  0.1267E+00  0.5100E+00
      2.399  0.1364E+00  0.5204E+00
      2.479  0.1461E+00  0.5317E+00
      2.558  0.1549E+00  0.5437E+00
      2.638  0.1862E+00  0.5575E+00
      2.718  0.1538E+00  0.5705E+00
      2.798  0.1518E+00  0.5827E+00
      2.877  0.1497E+00  0.5947E+00
      2.957  0.1477E+00  0.6066E+00
      3.037  0.1447E+00  0.6182E+00
      3.116  0.1416E+00  0.6296E+00
      3.196  0.1432E+00  0.6410E+00
      3.276  0.1436E+00  0.6524E+00
      3.356  0.1425E+00  0.6638E+00
      3.435  0.1402E+00  0.6751E+00
      3.515  0.1373E+00  0.6862E+00
      3.595  0.1338E+00  0.6970E+00
      3.674  0.1297E+00  0.7075E+00
      3.754  0.1283E+00  0.7177E+00
      3.834  0.1295E+00  0.7280E+00
      3.914  0.1276E+00  0.7383E+00
      3.993  0.1202E+00  0.7482E+00
      4.073  0.1012E+00  0.7571E+00
      4.153  0.7954E-01  0.7642E+00
      4.232  0.7004E-01  0.7702E+00
      4.312  0.6178E-01  0.7754E+00
      4.392  0.5338E-01  0.7800E+00
      4.472  0.4485E-01  0.7839E+00
      4.551  0.3808E-01  0.7872E+00
      4.631  0.3313E-01  0.7900E+00
      4.711  0.2900E-01  0.7925E+00
      4.790  0.2568E-01  0.7947E+00
      4.870  0.2317E-01  0.7966E+00
      4.950  0.2148E-01  0.7984E+00
      5.030  0.7703E-02  0.7994E+00
      5.109  0.3232E-02  0.7998E+00
      5.189  0.6725E-03  0.8000E+00
      5.269  0.0000E+00  0.8000E+00
      5.348  0.0000E+00  0.8000E+00
      5.428  0.0000E+00  0.8000E+00
      5.508  0.0000E+00  0.8000E+00
      5.588  0.0000E+00  0.8000E+00
      5.667  0.0000E+00  0.8000E+00
      5.747  0.0000E+00  0.8000E+00
      5.827  0.0000E+00  0.8000E+00
      5.906  0.0000E+00  0.8000E+00
      5.986  0.4277E-02  0.8001E+00
      6.066  0.1350E-01  0.8008E+00
      6.146  0.1699E-01  0.8021E+00
      6.225  0.1828E-01  0.8035E+00
      6.305  0.2305E-01  0.8051E+00
      6.385  0.2832E-01  0.8071E+00
      6.464  0.3385E-01  0.8096E+00
      6.544  0.3898E-01  0.8125E+00
      6.624  0.4376E-01  0.8158E+00
      6.704  0.4919E-01  0.8195E+00
      6.783  0.5508E-01  0.8237E+00
      6.863  0.6283E-01  0.8284E+00
      6.943  0.7238E-01  0.8337E+00
      7.022  0.8346E-01  0.8399E+00
      7.102  0.9606E-01  0.8471E+00
      7.182  0.1105E+00  0.8553E+00
      7.262  0.1294E+00  0.8648E+00
      7.341  0.1518E+00  0.8760E+00
      7.421  0.1813E+00  0.8892E+00
      7.501  0.1980E+00  0.9045E+00
      7.581  0.2038E+00  0.9205E+00
      7.660  0.2050E+00  0.9368E+00
      7.740  0.2148E+00  0.9535E+00
      7.820  0.2115E+00  0.9706E+00
      7.899  0.1798E+00  0.9864E+00
      7.979  0.1384E+00  0.9990E+00
      8.059  0.1084E+00  0.1009E+01
      8.139  0.6909E-01  0.1016E+01
      8.218  0.4911E-01  0.1021E+01
      8.298  0.5497E-01  0.1025E+01
      8.378  0.6636E-01  0.1030E+01
      8.457  0.7933E-01  0.1035E+01
      8.537  0.9897E-01  0.1043E+01
      8.617  0.1261E+00  0.1051E+01
      8.697  0.1979E+00  0.1064E+01
      8.776  0.3204E+00  0.1085E+01
      8.856  0.3819E+00  0.1114E+01
      8.936  0.2011E+00  0.1136E+01
      9.015  0.1535E+00  0.1150E+01
      9.095  0.1438E+00  0.1161E+01
      9.175  0.1410E+00  0.1173E+01
      9.255  0.1362E+00  0.1184E+01
      9.334  0.1297E+00  0.1194E+01
      9.414  0.1272E+00  0.1205E+01
      9.494  0.1325E+00  0.1215E+01
      9.573  0.1740E+00  0.1228E+01
      9.653  0.1254E+00  0.1240E+01
      9.733  0.9879E-01  0.1249E+01
      9.813  0.9433E-01  0.1256E+01
      9.892  0.9189E-01  0.1264E+01
      9.972  0.8938E-01  0.1271E+01
     10.052  0.8646E-01  0.1278E+01
     10.131  0.8400E-01  0.1285E+01
     10.211  0.8304E-01  0.1291E+01
     10.291  0.1116E+00  0.1299E+01
     10.371  0.1478E+00  0.1309E+01
     10.450  0.1776E+00  0.1323E+01
     10.530  0.1536E+00  0.1335E+01
     10.610  0.1467E+00  0.1347E+01
     10.689  0.1362E+00  0.1359E+01
     10.769  0.1307E+00  0.1369E+01
     10.849  0.1218E+00  0.1379E+01
     10.929  0.1088E+00  0.1388E+01
     11.008  0.9978E-01  0.1397E+01
     11.088  0.9963E-01  0.1405E+01
     11.168  0.9994E-01  0.1413E+01
     11.247  0.9367E-01  0.1420E+01
     11.327  0.8829E-01  0.1428E+01
     11.407  0.8286E-01  0.1434E+01
     11.487  0.7932E-01  0.1441E+01
     11.566  0.8125E-01  0.1447E+01
     11.646  0.8329E-01  0.1454E+01
     11.726  0.8544E-01  0.1461E+01
     11.805  0.8770E-01  0.1467E+01
     11.885  0.9007E-01  0.1475E+01
     11.965  0.9254E-01  0.1482E+01
     12.045  0.9512E-01  0.1489E+01
     12.124  0.9778E-01  0.1497E+01
     12.204  0.1029E+00  0.1505E+01
     12.284  0.1117E+00  0.1514E+01
     12.363  0.1098E+00  0.1522E+01
     12.443  0.1042E+00  0.1531E+01
     12.523  0.9604E-01  0.1539E+01
     12.603  0.8251E-01  0.1546E+01
     12.682  0.7873E-01  0.1553E+01
     12.762  0.7517E-01  0.1559E+01
     12.842  0.7118E-01  0.1565E+01
     12.921  0.6676E-01  0.1570E+01
     13.001  0.6021E-01  0.1575E+01
     13.081  0.4231E-01  0.1579E+01
     13.161  0.3875E-01  0.1583E+01
     13.240  0.3874E-01  0.1586E+01
     13.320  0.3481E-01  0.1589E+01
     13.400  0.2626E-01  0.1591E+01
     13.480  0.1337E-01  0.1593E+01
     13.559  0.1178E-01  0.1594E+01
     13.639  0.1065E-01  0.1595E+01
     13.719  0.9577E-02  0.1595E+01
     13.798  0.8562E-02  0.1596E+01
     13.878  0.7604E-02  0.1597E+01
     13.958  0.6703E-02  0.1597E+01
     14.038  0.5859E-02  0.1598E+01
     14.117  0.5072E-02  0.1598E+01
     14.197  0.4341E-02  0.1599E+01
     14.277  0.3667E-02  0.1599E+01
     14.356  0.3050E-02  0.1599E+01
     14.436  0.2490E-02  0.1599E+01
     14.516  0.1987E-02  0.1600E+01
     14.596  0.1540E-02  0.1600E+01
     14.675  0.1150E-02  0.1600E+01
     14.755  0.8170E-03  0.1600E+01
     14.835  0.5407E-03  0.1600E+01
     14.914  0.3213E-03  0.1600E+01
     14.994  0.1587E-03  0.1600E+01
     15.074  0.5281E-04  0.1600E+01
     15.154  0.3755E-05  0.1600E+01
     15.233  0.0000E+00  0.1600E+01
     15.313  0.0000E+00  0.1600E+01
     15.393  0.0000E+00  0.1600E+01
     15.472  0.0000E+00  0.1600E+01
     15.552  0.0000E+00  0.1600E+01
     15.632  0.0000E+00  0.1600E+01
     15.712  0.0000E+00  0.1600E+01
     15.791  0.0000E+00  0.1600E+01
     15.871  0.0000E+00  0.1600E+01
     15.951  0.0000E+00  0.1600E+01
     16.030  0.0000E+00  0.1600E+01
     16.110  0.0000E+00  0.1600E+01
     16.190  0.0000E+00  0.1600E+01
     16.270  0.0000E+00  0.1600E+01
